LAMMPS data file. CGCMM style. atom_style full generated by VMD/TopoTools v1.2 on Thu Jan 26 17:27:13 CET 2017
 320 atoms
 212 bonds
 106 angles
 0 dihedrals
 0 impropers
 4 atom types
 1 bond types
 1 angle types
 0 dihedral types
 0 improper types
 0.000000 15.500000  xlo xhi
 0.000000 15.500000  ylo yhi
 0.000000 15.500000  zlo zhi

 Masses

 1 1.008000 # H
 2 15.999400 # O
 3 22.989769 # Na
 4 35.453000 # Cl

 Atoms

1 1 2 -1.048400      	 2.78092 8.83643 9.42464
2 1 1 0.524200      	 2.25424 8.31725 10.046
3 1 1 0.524200      	 2.132 9.17917 8.77488
4 2 2 -1.048400      	 10.4133 8.52719 5.08904
5 2 1 0.524200      	 10.8496 8.96377 5.84379
6 2 1 0.524200      	 9.6468 9.1109 4.93726
7 3 2 -1.048400      	 1.63654 6.56638 2.16164
8 3 1 0.524200      	 1.92932 5.66524 1.87563
9 3 1 0.524200      	 0.824145 6.65638 1.64539
10 4 2 -1.048400      	 10.322 7.87831 2.28424
11 4 1 0.524200      	 11.1278 8.43966 2.2201
12 4 1 0.524200      	 10.255 7.8171 3.25497
13 5 2 -1.048400      	 10.7704 5.40513 0.880168
14 5 1 0.524200      	 10.9782 4.75808 1.58461
15 5 1 0.524200      	 10.6582 6.20015 1.43424
16 6 2 -1.048400      	 8.89039 12.9821 5.2846
17 6 1 0.524200      	 8.07935 12.4625 5.42109
18 6 1 0.524200      	 9.30395 12.4775 4.54121
19 7 2 -1.048400      	 10.1829 12.661 10.2802
20 7 1 0.524200      	 9.61789 12.2283 9.61518
21 7 1 0.524200      	 9.6199 12.6256 11.0811
22 8 2 -1.048400      	 14.0291 1.82661 2.80357
23 8 1 0.524200      	 14.1729 2.76629 3.03595
24 8 1 0.524200      	 13.4387 1.55374 3.52636
25 9 2 -1.048400      	 8.78103 10.6966 8.75122
26 9 1 0.524200      	 8.09146 10.8763 8.06808
27 9 1 0.524200      	 8.29403 10.102 9.33828
28 10 2 -1.048400      	 9.0738 12.0451 12.6855
29 10 1 0.524200      	 8.35985 11.3827 12.827
30 10 1 0.524200      	 9.42373 12.1202 13.579
31 11 2 -1.048400      	 10.6634 0.861283 2.17882
32 11 1 0.524200      	 10.408 1.04945 3.09602
33 11 1 0.524200      	 10.0431 1.42211 1.67225
34 12 2 -1.048400      	 4.72982 8.09972 7.83299
35 12 1 0.524200      	 5.47412 7.94921 8.46174
36 12 1 0.524200      	 4.04657 8.43697 8.471
37 13 2 -1.048400      	 3.44116 4.69158 9.61956
38 13 1 0.524200      	 3.16326 5.21114 8.82416
39 13 1 0.524200      	 3.7854 3.86224 9.18308
40 14 2 -1.048400      	 2.94446 10.268 13.024
41 14 1 0.524200      	 3.71836 10.7422 12.6333
42 14 1 0.524200      	 3.32417 9.35977 13.0661
43 15 2 -1.048400      	 5.51333 13.304 4.58993
44 15 1 0.524200      	 5.73925 12.721 3.85111
45 15 1 0.524200      	 4.5469 13.4742 4.43354
46 16 2 -1.048400      	 4.98841 13.6613 8.46719
47 16 1 0.524200      	 5.82356 13.472 7.98742
48 16 1 0.524200      	 5.19932 14.5665 8.74128
49 17 2 -1.048400      	 2.22357 10.6922 2.64051
50 17 1 0.524200      	 2.0917 10.8367 3.58487
51 17 1 0.524200      	 2.86283 9.9541 2.6506
52 18 2 -1.048400      	 2.71518 6.2688 7.60974
53 18 1 0.524200      	 2.45954 6.13873 6.68423
54 18 1 0.524200      	 3.43838 6.92224 7.53099
55 19 2 -1.048400      	 11.1 14.7329 5.81032
56 19 1 0.524200      	 10.1766 14.4063 5.82808
57 19 1 0.524200      	 11.5829 13.873 5.82454
58 20 2 -1.048400      	 0.894113 4.65606 10.1027
59 20 1 0.524200      	 0.651699 3.74037 10.2856
60 20 1 0.524200      	 1.86567 4.56191 9.9175
61 21 2 -1.048400      	 8.21056 7.8725 0.521067
62 21 1 0.524200      	 8.86257 7.66364 15.34
63 21 1 0.524200      	 8.78532 7.88587 1.31117
64 22 2 -1.048400      	 6.90844 2.31862 13.4533
65 22 1 0.524200      	 6.19262 2.98261 13.5369
66 22 1 0.524200      	 6.38555 1.51266 13.3142
67 23 2 -1.048400      	 3.97533 7.80538 12.6514
68 23 1 0.524200      	 4.58006 7.18296 12.2008
69 23 1 0.524200      	 3.12728 7.33565 12.5145
70 24 2 -1.048400      	 12.5108 9.42569 2.21426
71 24 1 0.524200      	 13.0406 9.7766 2.9817
72 24 1 0.524200      	 13.1533 8.7963 1.84683
73 25 2 -1.048400      	 11.1094 9.56293 7.82458
74 25 1 0.524200      	 10.334 10.0279 8.21752
75 25 1 0.524200      	 10.9966 8.67459 8.21544
76 26 2 -1.048400      	 13.1437 4.31755 6.61471
77 26 1 0.524200      	 12.4102 3.76915 6.93783
78 26 1 0.524200      	 13.8098 4.16287 7.29715
79 27 2 -1.048400      	 1.19178 0.938741 1.8505
80 27 1 0.524200      	 1.82168 0.280424 2.15819
81 27 1 0.524200      	 1.65209 1.24691 1.05636
82 28 2 -1.048400      	 7.97295 9.79283 4.27758
83 28 1 0.524200      	 7.44252 10.3482 3.67348
84 28 1 0.524200      	 7.25638 9.2894 4.71438
85 29 2 -1.048400      	 3.45714 1.86183 3.8052
86 29 1 0.524200      	 3.07364 1.3906 3.07239
87 29 1 0.524200      	 4.37256 1.99707 3.50983
88 30 2 -1.048400      	 4.60578 2.69189 8.56492
89 30 1 0.524200      	 5.48639 2.80674 8.1853
90 30 1 0.524200      	 4.39206 1.78727 8.34121
91 31 2 -1.048400      	 14.6524 0.15976 11.6541
92 31 1 0.524200      	 14.0031 14.9496 11.8046
93 31 1 0.524200      	 14.3273 0.864377 12.2176
94 32 2 -1.048400      	 12.716 13.5261 11.8948
95 32 1 0.524200      	 12.3579 13.4585 10.9967
96 32 1 0.524200      	 11.9241 13.7963 12.3771
97 33 2 -1.048400      	 6.58914 7.23786 9.59364
98 33 1 0.524200      	 6.06246 6.77205 10.2856
99 33 1 0.524200      	 7.42017 7.38795 10.0889
100 34 2 -1.048400      	 4.66476 5.51337 4.98436
101 34 1 0.524200      	 5.20806 4.87466 4.45793
102 34 1 0.524200      	 5.21365 5.6229 5.77006
103 35 2 -1.048400      	 5.64497 13.8282 13.0778
104 35 1 0.524200      	 6.37608 13.7064 13.7294
105 35 1 0.524200      	 4.91283 13.9652 13.7055
106 36 2 -1.048400      	 3.80315 8.33253 3.33216
107 36 1 0.524200      	 4.49125 7.74602 2.92897
108 36 1 0.524200      	 3.04446 7.72698 3.31427
109 37 2 -1.048400      	 9.97563 11.5692 3.36743
110 37 1 0.524200      	 9.34576 10.8195 3.44371
111 37 1 0.524200      	 10.5192 11.3044 2.61163
112 38 2 -1.048400      	 10.4197 9.52876 11.4717
113 38 1 0.524200      	 10.0319 10.4141 11.437
114 38 1 0.524200      	 11.366 9.75582 11.4064
115 39 2 -1.048400      	 14.1875 7.16988 0.256347
116 39 1 0.524200      	 13.3452 7.29222 15.3004
117 39 1 0.524200      	 14.8139 7.39776 15.0607
118 40 2 -1.048400      	 11.2584 10.3984 0.0558382
119 40 1 0.524200      	 11.6592 11.2815 15.5039
120 40 1 0.524200      	 11.5757 10.1031 0.936977
121 41 2 -1.048400      	 12.989 2.95093 10.1564
122 41 1 0.524200      	 12.5649 2.62355 9.33018
123 41 1 0.524200      	 13.8646 2.54491 10.1128
124 42 2 -1.048400      	 5.4288 9.20881 5.43173
125 42 1 0.524200      	 4.79056 8.87656 4.76027
126 42 1 0.524200      	 5.1338 8.70341 6.2285
127 43 2 -1.048400      	 7.06108 13.622 -0.110516
128 43 1 0.524200      	 7.96442 13.6651 15.7602
129 43 1 0.524200      	 6.64437 14.3295 0.405032
130 44 2 -1.048400      	 6.83169 11.0077 6.89886
131 44 1 0.524200      	 6.28162 11.7863 6.74607
132 44 1 0.524200      	 6.37193 10.3286 6.35736
133 45 2 -1.048400      	 12.4495 1.41231 5.2037
134 45 1 0.524200      	 12.2352 0.458043 5.33563
135 45 1 0.524200      	 11.5539 1.76602 5.25226
136 46 2 -1.048400      	 2.414 3.70846 5.2877
137 46 1 0.524200      	 2.72328 2.98746 4.68778
138 46 1 0.524200      	 3.10151 4.37929 5.14142
139 47 2 -1.048400      	 11.3787 2.08259 14.5459
140 47 1 0.524200      	 11.4495 2.8326 13.9394
141 47 1 0.524200      	 12.2942 1.89624 14.7514
142 48 2 -1.048400      	 5.21432 1.77243 1.04173
143 48 1 0.524200      	 4.69938 0.954744 0.858501
144 48 1 0.524200      	 6.08284 1.52842 0.714175
145 49 2 -1.048400      	 2.71558 3.37446 12.8879
146 49 1 0.524200      	 2.03267 3.99798 12.5994
147 49 1 0.524200      	 2.69092 2.68634 12.1677
148 50 2 -1.048400      	 5.41345 6.81903 1.94615
149 50 1 0.524200      	 6.37518 6.7107 2.00936
150 50 1 0.524200      	 5.16169 5.90946 1.73867
151 51 2 -1.048400      	 11.8294 13.3758 1.12592
152 51 1 0.524200      	 12.3981 13.5923 1.89874
153 51 1 0.524200      	 12.1693 13.9865 0.457178
154 52 2 -1.048400      	 13.6617 13.6602 3.09043
155 52 1 0.524200      	 12.9853 13.3928 3.74792
156 52 1 0.524200      	 14.4526 13.3181 3.54781
157 53 2 -1.048400      	 7.23908 0.54536 9.15324
158 53 1 0.524200      	 7.59766 0.0516988 8.39984
159 53 1 0.524200      	 7.95498 0.500825 9.80256
160 54 2 -1.048400      	 0.382292 10.5067 13.4251
161 54 1 0.524200      	 0.38764 10.9173 12.5389
162 54 1 0.524200      	 1.3394 10.2628 13.4727
163 55 2 -1.048400      	 12.2991 12.4295 5.33474
164 55 1 0.524200      	 11.6776 11.8306 4.88708
165 55 1 0.524200      	 12.7661 11.8064 5.93225
166 56 2 -1.048400      	 6.8971 11.601 2.25874
167 56 1 0.524200      	 6.6204 10.8932 1.63348
168 56 1 0.524200      	 6.89931 12.3509 1.64125
169 57 2 -1.048400      	 13.397 10.6192 7.058
170 57 1 0.524200      	 12.5338 10.2645 7.40379
171 57 1 0.524200      	 13.9051 10.7373 7.87091
172 58 2 -1.048400      	 11.0292 1.71572 11.5102
173 58 1 0.524200      	 10.2842 2.32713 11.5981
174 58 1 0.524200      	 11.7453 2.28942 11.1731
175 59 2 -1.048400      	 14.553 4.90946 12.5768
176 59 1 0.524200      	 14.3303 5.86488 12.4986
177 59 1 0.524200      	 13.7675 4.56545 13.0403
178 60 2 -1.048400      	 7.30514 4.67375 1.23909
179 60 1 0.524200      	 8.24833 4.47035 1.30787
180 60 1 0.524200      	 6.96671 3.9916 0.638658
181 61 2 -1.048400      	 11.1044 4.38379 3.39313
182 61 1 0.524200      	 12.0171 4.13152 3.62358
183 61 1 0.524200      	 10.7496 4.69491 4.25708
184 62 2 -1.048400      	 5.05392 4.23188 13.7146
185 62 1 0.524200      	 4.63004 4.88679 14.2894
186 62 1 0.524200      	 4.249 3.7464 13.3939
187 63 2 -1.048400      	 13.8904 4.54129 4.0002
188 63 1 0.524200      	 13.5986 4.63633 4.93702
189 63 1 0.524200      	 14.0197 5.44822 3.71124
190 64 2 -1.048400      	 3.05619 11.1097 5.81955
191 64 1 0.524200      	 3.94835 11.0451 5.45397
192 64 1 0.524200      	 3.05789 11.9919 6.23639
193 65 2 -1.048400      	 13.9679 10.0829 4.28932
194 65 1 0.524200      	 14.8958 10.3539 4.29438
195 65 1 0.524200      	 13.8679 9.70129 5.17852
196 66 2 -1.048400      	 12.234 5.49144 10.2748
197 66 1 0.524200      	 12.4787 4.53615 10.3214
198 66 1 0.524200      	 13.0378 5.89079 10.6323
199 67 2 -1.048400      	 3.13674 12.1478 9.95774
200 67 1 0.524200      	 3.86067 12.4013 9.34766
201 67 1 0.524200      	 3.66955 11.7025 10.6505
202 68 2 -1.048400      	 10.1623 5.47572 5.66724
203 68 1 0.524200      	 10.009 6.41991 5.49171
204 68 1 0.524200      	 10.7322 5.53561 6.44869
205 69 2 -1.048400      	 7.95873 3.60377 5.72223
206 69 1 0.524200      	 8.69722 4.24447 5.70247
207 69 1 0.524200      	 7.35148 4.07234 6.34538
208 70 2 -1.048400      	 8.60129 3.48278 11.5048
209 70 1 0.524200      	 8.54816 4.30625 12.0112
210 70 1 0.524200      	 8.01633 2.90609 12.0392
211 71 2 -1.048400      	 12.9971 10.7287 11.7655
212 71 1 0.524200      	 13.9307 10.6247 11.5336
213 71 1 0.524200      	 12.9749 11.6984 11.9231
214 72 2 -1.048400      	 8.60108 5.80915 13.5282
215 72 1 0.524200      	 9.11301 5.20957 14.0878
216 72 1 0.524200      	 7.74176 5.81501 13.9763
217 73 2 -1.048400      	 14.0874 7.46471 12.2284
218 73 1 0.524200      	 13.3475 7.86533 12.7435
219 73 1 0.524200      	 14.2752 8.16387 11.5891
220 74 2 -1.048400      	 8.85363 4.20108 8.80903
221 74 1 0.524200      	 9.45665 4.9545 8.91423
222 74 1 0.524200      	 8.73357 3.89119 9.73312
223 75 2 -1.048400      	 6.64599 5.08767 7.45351
224 75 1 0.524200      	 7.3915 4.80047 8.02924
225 75 1 0.524200      	 6.27129 5.79957 7.99697
226 76 2 -1.048400      	 12.0738 4.69568 13.6194
227 76 1 0.524200      	 11.7727 5.5155 13.2016
228 76 1 0.524200      	 11.87 4.8483 14.5557
229 77 2 -1.048400      	 11.4105 2.26613 8.00508
230 77 1 0.524200      	 11.1694 1.34227 7.82739
231 77 1 0.524200      	 10.5396 2.68048 8.10547
232 78 2 -1.048400      	 10.3778 6.83957 8.97911
233 78 1 0.524200      	 9.80604 6.95887 9.77697
234 78 1 0.524200      	 11.1295 6.33606 9.37452
235 79 2 -1.048400      	 14.0897 7.71217 6.63378
236 79 1 0.524200      	 14.2881 7.24851 7.46726
237 79 1 0.524200      	 14.0039 8.6183 6.94434
238 80 2 -1.048400      	 8.92438 7.27622 11.1166
239 80 1 0.524200      	 8.80932 6.81586 11.9725
240 80 1 0.524200      	 9.455 8.06707 11.3757
241 81 2 -1.048400      	 9.03171 14.0084 1.71545
242 81 1 0.524200      	 9.95329 14.2599 1.48884
243 81 1 0.524200      	 9.20458 13.262 2.32079
244 82 2 -1.048400      	 12.2662 8.74635 13.6888
245 82 1 0.524200      	 11.6843 9.2089 14.3349
246 82 1 0.524200      	 12.5642 9.51589 13.1674
247 83 2 -1.048400      	 2.61843 1.205 11.4463
248 83 1 0.524200      	 3.55493 0.908419 11.3674
249 83 1 0.524200      	 2.1086 0.457683 11.0556
250 84 2 -1.048400      	 6.17456 9.6406 0.510179
251 84 1 0.524200      	 6.75736 8.86118 0.669881
252 84 1 0.524200      	 5.28429 9.22942 0.500811
253 85 2 -1.048400      	 6.13639 3.80876 3.68798
254 85 1 0.524200      	 6.65835 3.97559 2.88747
255 85 1 0.524200      	 6.80364 3.4573 4.31005
256 86 2 -1.048400      	 4.99027 11.5315 11.9887
257 86 1 0.524200      	 5.25392 12.4492 12.2425
258 86 1 0.524200      	 5.74854 11.0189 12.341
259 87 2 -1.048400      	 0.370596 12.7289 4.76333
260 87 1 0.524200      	 1.1877 12.7833 5.29414
261 87 1 0.524200      	 15.2299 12.5826 5.46665
262 88 2 -1.048400      	 2.0365 13.336 7.10462
263 88 1 0.524200      	 2.77732 13.9165 7.33336
264 88 1 0.524200      	 1.80482 12.9678 7.96859
265 89 2 -1.048400      	 0.769279 3.02472 7.21404
266 89 1 0.524200      	 1.59374 3.03834 6.68186
267 89 1 0.524200      	 0.172699 3.35485 6.53866
268 90 2 -1.048400      	 0.218309 0.327434 14.7464
269 90 1 0.524200      	 0.22147 15.1037 14.0749
270 90 1 0.524200      	 0.755348 0.972936 14.2787
271 91 2 -1.048400      	 0.098 7.18945 8.96368
272 91 1 0.524200      	 0.51037 6.39015 9.35368
273 91 1 0.524200      	 0.851967 7.57522 8.49339
274 92 2 -1.048400      	 0.487213 12.4131 1.10861
275 92 1 0.524200      	 0.619768 11.9823 0.248908
276 92 1 0.524200      	 1.10123 11.8617 1.64587
277 93 2 -1.048400      	 4.4309 0.944493 13.5517
278 93 1 0.524200      	 3.55522 0.6991 13.2151
279 93 1 0.524200      	 4.35759 0.598697 14.4471
280 94 2 -1.048400      	 2.18155 4.12267 1.24234
281 94 1 0.524200      	 2.69352 3.60752 0.608057
282 94 1 0.524200      	 1.57647 3.46651 1.6144
283 95 2 -1.048400      	 0.879971 13.8687 13.2067
284 95 1 0.524200      	 1.17429 12.9966 13.5215
285 95 1 0.524200      	 1.65346 14.2643 12.777
286 96 2 -1.048400      	 3.61608 8.1809 0.416653
287 96 1 0.524200      	 2.69959 7.97117 0.621249
288 96 1 0.524200      	 4.0999 7.69404 1.10367
289 97 2 -1.048400      	 1.66606 6.57427 11.9709
290 97 1 0.524200      	 0.962928 7.19586 12.1898
291 97 1 0.524200      	 1.15116 5.84318 11.5685
292 98 2 -1.048400      	 1.48241 9.38914 7.09026
293 98 1 0.524200      	 1.3627 8.67942 6.43111
294 98 1 0.524200      	 2.09346 9.99589 6.60585
295 99 2 -1.048400      	 7.49207 0.553998 3.37396
296 99 1 0.524200      	 8.05934 -0.129538 2.97384
297 99 1 0.524200      	 6.68264 0.0590726 3.57974
298 100 2 -1.048400      	 1.19979 7.26249 5.103
299 100 1 0.524200      	 1.30284 6.97292 4.1803
300 100 1 0.524200      	 0.363471 6.8489 5.36835
301 101 2 -1.048400      	 5.2331 5.78551 11.362
302 101 1 0.524200      	 4.58275 5.35936 10.7535
303 101 1 0.524200      	 5.34894 5.0939 12.0406
304 102 2 -1.048400      	 7.41124 13.9726 7.3151
305 102 1 0.524200      	 7.39432 14.69 6.65665
306 102 1 0.524200      	 8.24442 13.5196 7.04979
307 103 2 -1.048400      	 0.53563 11.4814 10.8997
308 103 1 0.524200      	 1.50861 11.48 10.7891
309 103 1 0.524200      	 0.316309 12.2621 10.382
310 104 2 -1.048400      	 3.02525 13.815 3.9681
311 104 1 0.524200      	 2.15002 14.167 4.17095
312 104 1 0.524200      	 3.00774 13.6854 2.996
313 105 2 -1.048400      	 8.24609 0.9466 6.16689
314 105 1 0.524200      	 8.24407 0.811198 5.20391
315 105 1 0.524200      	 8.16209 1.92804 6.20572
316 106 2 -1.048400      	 7.36212 10.1903 13.4962
317 106 1 0.524200      	 6.683 10.1179 14.1962
318 106 1 0.524200      	 8.07823 9.69173 13.9102
319 107 3 1.000000      	 15.117 14.6275 1.5336
320 108 4 -1.000000      	 3.55848 14.648 0.58565

 Bonds

1 1 1 2
2 1 1 3
3 1 4 5
4 1 4 6
5 1 7 8
6 1 7 9
7 1 10 11
8 1 10 12
9 1 13 14
10 1 13 15
11 1 16 18
12 1 16 17
13 1 19 20
14 1 19 21
15 1 22 23
16 1 22 24
17 1 25 27
18 1 25 26
19 1 28 29
20 1 28 30
21 1 31 33
22 1 31 32
23 1 34 35
24 1 34 36
25 1 37 38
26 1 37 39
27 1 40 42
28 1 40 41
29 1 43 45
30 1 43 44
31 1 46 48
32 1 46 47
33 1 49 50
34 1 49 51
35 1 52 54
36 1 52 53
37 1 55 57
38 1 55 56
39 1 58 59
40 1 58 60
41 1 61 62
42 1 61 63
43 1 64 65
44 1 64 66
45 1 67 69
46 1 67 68
47 1 70 72
48 1 70 71
49 1 73 75
50 1 73 74
51 1 76 77
52 1 76 78
53 1 79 81
54 1 79 80
55 1 82 83
56 1 82 84
57 1 85 86
58 1 85 87
59 1 88 90
60 1 88 89
61 1 91 92
62 1 91 93
63 1 94 96
64 1 94 95
65 1 97 98
66 1 97 99
67 1 100 102
68 1 100 101
69 1 103 105
70 1 103 104
71 1 106 108
72 1 106 107
73 1 109 110
74 1 109 111
75 1 112 114
76 1 112 113
77 1 115 117
78 1 115 116
79 1 118 119
80 1 118 120
81 1 121 122
82 1 121 123
83 1 124 125
84 1 124 126
85 1 127 129
86 1 127 128
87 1 130 132
88 1 130 131
89 1 133 134
90 1 133 135
91 1 136 137
92 1 136 138
93 1 139 141
94 1 139 140
95 1 142 144
96 1 142 143
97 1 145 147
98 1 145 146
99 1 148 150
100 1 148 149
101 1 151 153
102 1 151 152
103 1 154 155
104 1 154 156
105 1 157 159
106 1 157 158
107 1 160 161
108 1 160 162
109 1 163 165
110 1 163 164
111 1 166 167
112 1 166 168
113 1 169 171
114 1 169 170
115 1 172 174
116 1 172 173
117 1 175 177
118 1 175 176
119 1 178 179
120 1 178 180
121 1 181 183
122 1 181 182
123 1 184 185
124 1 184 186
125 1 187 189
126 1 187 188
127 1 190 192
128 1 190 191
129 1 193 195
130 1 193 194
131 1 196 197
132 1 196 198
133 1 199 200
134 1 199 201
135 1 202 203
136 1 202 204
137 1 205 206
138 1 205 207
139 1 208 210
140 1 208 209
141 1 211 213
142 1 211 212
143 1 214 216
144 1 214 215
145 1 217 218
146 1 217 219
147 1 220 221
148 1 220 222
149 1 223 224
150 1 223 225
151 1 226 227
152 1 226 228
153 1 229 231
154 1 229 230
155 1 232 234
156 1 232 233
157 1 235 237
158 1 235 236
159 1 238 240
160 1 238 239
161 1 241 243
162 1 241 242
163 1 244 245
164 1 244 246
165 1 247 248
166 1 247 249
167 1 250 252
168 1 250 251
169 1 253 254
170 1 253 255
171 1 256 257
172 1 256 258
173 1 259 261
174 1 259 260
175 1 262 263
176 1 262 264
177 1 265 267
178 1 265 266
179 1 268 269
180 1 268 270
181 1 271 273
182 1 271 272
183 1 274 275
184 1 274 276
185 1 277 279
186 1 277 278
187 1 280 281
188 1 280 282
189 1 283 284
190 1 283 285
191 1 286 287
192 1 286 288
193 1 289 290
194 1 289 291
195 1 292 293
196 1 292 294
197 1 295 297
198 1 295 296
199 1 298 299
200 1 298 300
201 1 301 303
202 1 301 302
203 1 304 306
204 1 304 305
205 1 307 308
206 1 307 309
207 1 310 311
208 1 310 312
209 1 313 315
210 1 313 314
211 1 316 318
212 1 316 317

 Angles

1 1 2 1 3
2 1 5 4 6
3 1 8 7 9
4 1 11 10 12
5 1 14 13 15
6 1 17 16 18
7 1 20 19 21
8 1 23 22 24
9 1 26 25 27
10 1 29 28 30
11 1 32 31 33
12 1 35 34 36
13 1 38 37 39
14 1 41 40 42
15 1 44 43 45
16 1 47 46 48
17 1 50 49 51
18 1 53 52 54
19 1 56 55 57
20 1 59 58 60
21 1 62 61 63
22 1 65 64 66
23 1 68 67 69
24 1 71 70 72
25 1 74 73 75
26 1 77 76 78
27 1 80 79 81
28 1 83 82 84
29 1 86 85 87
30 1 89 88 90
31 1 92 91 93
32 1 95 94 96
33 1 98 97 99
34 1 101 100 102
35 1 104 103 105
36 1 107 106 108
37 1 110 109 111
38 1 113 112 114
39 1 116 115 117
40 1 119 118 120
41 1 122 121 123
42 1 125 124 126
43 1 128 127 129
44 1 131 130 132
45 1 134 133 135
46 1 137 136 138
47 1 140 139 141
48 1 143 142 144
49 1 146 145 147
50 1 149 148 150
51 1 152 151 153
52 1 155 154 156
53 1 158 157 159
54 1 161 160 162
55 1 164 163 165
56 1 167 166 168
57 1 170 169 171
58 1 173 172 174
59 1 176 175 177
60 1 179 178 180
61 1 182 181 183
62 1 185 184 186
63 1 188 187 189
64 1 191 190 192
65 1 194 193 195
66 1 197 196 198
67 1 200 199 201
68 1 203 202 204
69 1 206 205 207
70 1 209 208 210
71 1 212 211 213
72 1 215 214 216
73 1 218 217 219
74 1 221 220 222
75 1 224 223 225
76 1 227 226 228
77 1 230 229 231
78 1 233 232 234
79 1 236 235 237
80 1 239 238 240
81 1 242 241 243
82 1 245 244 246
83 1 248 247 249
84 1 251 250 252
85 1 254 253 255
86 1 257 256 258
87 1 260 259 261
88 1 263 262 264
89 1 266 265 267
90 1 269 268 270
91 1 272 271 273
92 1 275 274 276
93 1 278 277 279
94 1 281 280 282
95 1 284 283 285
96 1 287 286 288
97 1 290 289 291
98 1 293 292 294
99 1 296 295 297
100 1 299 298 300
101 1 302 301 303
102 1 305 304 306
103 1 308 307 309
104 1 311 310 312
105 1 314 313 315
106 1 317 316 318
